 # Bcc Cr oriented X=[-110] Y=[-1-12] Z=[111].
 
          24  atoms
           1  atom types
 
      0.00000000       4.48956238  xlo xhi
      0.00000000      43.10460055  ylo yhi
      0.00000000       2.74928425  zlo zhi
 
Masses
 
           1   51.99610000    # Cr
 
Atoms # atomic
 
         1    1        0.00000000       0.00000000       0.00000000
         2    1        2.24478119       3.88807507       0.00000000
         3    1        0.00000000       2.59205005       1.83285616
         4    1        2.24478119       6.48012511       1.83285616
         5    1        2.24478119       1.29602502       0.91642808
         6    1        0.00000000       5.18410009       0.91642808
         7    1        0.00000000       7.77615014       0.00000000
         8    1        2.24478119      11.66422521       0.00000000
         9    1        0.00000000      10.36820018       1.83285616
        10    1        2.24478119      14.25627525       1.83285616
        11    1        2.24478119       9.07217516       0.91642808
        12    1        0.00000000      12.96025023       0.91642808
        13    1        0.00000000      15.55230027       0.00000000
        14    1        2.24478119      19.44037534       0.00000000
        15    1        0.00000000      18.14435032       1.83285616
        16    1        2.24478119      22.03242539       1.83285616
        17    1        2.24478119      16.84832530       0.91642808
        18    1        0.00000000      20.73640037       0.91642808
        19    1        0.00000000      23.32845041       0.00000000
        20    1        2.24478119      27.21652548       0.00000000
        21    1        0.00000000      25.92050046       1.83285616
        22    1        2.24478119      29.80857553       1.83285616
        23    1        2.24478119      24.62447544       0.91642808
        24    1        0.00000000      28.51255050       0.91642808
