 # Bcc Cr oriented X=[-110] Y=[-1-12] Z=[111].
 
          24  atoms
           1  atom types
 
      0.00000000       4.47556166  xlo xhi
      0.00000000      43.00760076  ylo yhi
      0.00000000       2.74071060  zlo zhi
 
Masses
 
           1   51.99610000    # Cr
 
Atoms # atomic
 
         1    1        0.00000000       0.00000000       0.00000000
         2    1        2.23778083       3.87595009       0.00000000
         3    1        0.00000000       2.58396673       1.82714040
         4    1        2.23778083       6.45991682       1.82714040
         5    1        2.23778083       1.29198336       0.91357020
         6    1        0.00000000       5.16793346       0.91357020
         7    1        0.00000000       7.75190019       0.00000000
         8    1        2.23778083      11.62785028       0.00000000
         9    1        0.00000000      10.33586692       1.82714040
        10    1        2.23778083      14.21181701       1.82714040
        11    1        2.23778083       9.04388355       0.91357020
        12    1        0.00000000      12.91983365       0.91357020
        13    1        0.00000000      15.50380038       0.00000000
        14    1        2.23778083      19.37975047       0.00000000
        15    1        0.00000000      18.08776711       1.82714040
        16    1        2.23778083      21.96371720       1.82714040
        17    1        2.23778083      16.79578374       0.91357020
        18    1        0.00000000      20.67173384       0.91357020
        19    1        0.00000000      23.25570057       0.00000000
        20    1        2.23778083      27.13165066       0.00000000
        21    1        0.00000000      25.83966730       1.82714040
        22    1        2.23778083      29.71561739       1.82714040
        23    1        2.23778083      24.54768393       0.91357020
        24    1        0.00000000      28.42363403       0.91357020
