 # Bcc Cr oriented X=[-1-12] Y=[1-10] Z=[111].
 
          36  atoms
           1  atom types
 
      0.00000000       7.77615014  xlo xhi
      0.00000000      38.93737425  ylo yhi
      0.00000000       2.74928425  zlo zhi
 
Masses
 
           1   51.99610000    # Cr
 
Atoms # atomic
 
         1    1        0.00000000       0.00000000       0.00000000
         2    1        3.88807507       2.24478119       0.00000000
         3    1        2.59205005       0.00000000       1.83285616
         4    1        6.48012511       2.24478119       1.83285616
         5    1        1.29602502       2.24478119       0.91642808
         6    1        5.18410009       0.00000000       0.91642808
         7    1        0.00000000       4.48956238       0.00000000
         8    1        3.88807507       6.73434356       0.00000000
         9    1        2.59205005       4.48956238       1.83285616
        10    1        6.48012511       6.73434356       1.83285616
        11    1        1.29602502       6.73434356       0.91642808
        12    1        5.18410009       4.48956238       0.91642808
        13    1        0.00000000       8.97912475       0.00000000
        14    1        3.88807507      11.22390594       0.00000000
        15    1        2.59205005       8.97912475       1.83285616
        16    1        6.48012511      11.22390594       1.83285616
        17    1        1.29602502      11.22390594       0.91642808
        18    1        5.18410009       8.97912475       0.91642808
        19    1        0.00000000      13.46868713       0.00000000
        20    1        3.88807507      15.71346831       0.00000000
        21    1        2.59205005      13.46868713       1.83285616
        22    1        6.48012511      15.71346831       1.83285616
        23    1        1.29602502      15.71346831       0.91642808
        24    1        5.18410009      13.46868713       0.91642808
        25    1        0.00000000      17.95824950       0.00000000
        26    1        3.88807507      20.20303069       0.00000000
        27    1        2.59205005      17.95824950       1.83285616
        28    1        6.48012511      20.20303069       1.83285616
        29    1        1.29602502      20.20303069       0.91642808
        30    1        5.18410009      17.95824950       0.91642808
        31    1        0.00000000      22.44781188       0.00000000
        32    1        3.88807507      24.69259306       0.00000000
        33    1        2.59205005      22.44781188       1.83285616
        34    1        6.48012511      24.69259306       1.83285616
        35    1        1.29602502      24.69259306       0.91642808
        36    1        5.18410009      22.44781188       0.91642808
