 # Bcc Cr oriented X=[-1-12] Y=[1-10] Z=[111].
 
          36  atoms
           1  atom types
 
      0.00000000       7.75190019  xlo xhi
      0.00000000      38.85336997  ylo yhi
      0.00000000       2.74071060  zlo zhi
 
Masses
 
           1   51.99610000    # Cr
 
Atoms # atomic
 
         1    1        0.00000000       0.00000000       0.00000000
         2    1        3.87595009       2.23778083       0.00000000
         3    1        2.58396673       0.00000000       1.82714040
         4    1        6.45991682       2.23778083       1.82714040
         5    1        1.29198336       2.23778083       0.91357020
         6    1        5.16793346       0.00000000       0.91357020
         7    1        0.00000000       4.47556166       0.00000000
         8    1        3.87595009       6.71334249       0.00000000
         9    1        2.58396673       4.47556166       1.82714040
        10    1        6.45991682       6.71334249       1.82714040
        11    1        1.29198336       6.71334249       0.91357020
        12    1        5.16793346       4.47556166       0.91357020
        13    1        0.00000000       8.95112332       0.00000000
        14    1        3.87595009      11.18890415       0.00000000
        15    1        2.58396673       8.95112332       1.82714040
        16    1        6.45991682      11.18890415       1.82714040
        17    1        1.29198336      11.18890415       0.91357020
        18    1        5.16793346       8.95112332       0.91357020
        19    1        0.00000000      13.42668498       0.00000000
        20    1        3.87595009      15.66446581       0.00000000
        21    1        2.58396673      13.42668498       1.82714040
        22    1        6.45991682      15.66446581       1.82714040
        23    1        1.29198336      15.66446581       0.91357020
        24    1        5.16793346      13.42668498       0.91357020
        25    1        0.00000000      17.90224664       0.00000000
        26    1        3.87595009      20.14002747       0.00000000
        27    1        2.58396673      17.90224664       1.82714040
        28    1        6.45991682      20.14002747       1.82714040
        29    1        1.29198336      20.14002747       0.91357020
        30    1        5.16793346      17.90224664       0.91357020
        31    1        0.00000000      22.37780830       0.00000000
        32    1        3.87595009      24.61558913       0.00000000
        33    1        2.58396673      22.37780830       1.82714040
        34    1        6.45991682      24.61558913       1.82714040
        35    1        1.29198336      24.61558913       0.91357020
        36    1        5.16793346      22.37780830       0.91357020
