 # Bcc Mo oriented X=[-110] Y=[-1-12] Z=[111].
 
          24  atoms
           1  atom types
 
      0.00000000       4.55489904  xlo xhi
      0.00000000      43.55726625  ylo yhi
      0.00000000       2.78929462  zlo zhi
 
Masses
 
           1   95.96000000    # Mo
 
Atoms # atomic
 
         1    1        0.00000000       0.00000000       0.00000000
         2    1        2.27744952       3.94465828       0.00000000
         3    1        0.00000000       2.62977219       1.85952975
         4    1        2.27744952       6.57443047       1.85952975
         5    1        2.27744952       1.31488609       0.92976487
         6    1        0.00000000       5.25954438       0.92976487
         7    1        0.00000000       7.88931656       0.00000000
         8    1        2.27744952      11.83397485       0.00000000
         9    1        0.00000000      10.51908875       1.85952975
        10    1        2.27744952      14.46374703       1.85952975
        11    1        2.27744952       9.20420266       0.92976487
        12    1        0.00000000      13.14886094       0.92976487
        13    1        0.00000000      15.77863313       0.00000000
        14    1        2.27744952      19.72329141       0.00000000
        15    1        0.00000000      18.40840531       1.85952975
        16    1        2.27744952      22.35306360       1.85952975
        17    1        2.27744952      17.09351922       0.92976487
        18    1        0.00000000      21.03817750       0.92976487
        19    1        0.00000000      23.66794969       0.00000000
        20    1        2.27744952      27.61260797       0.00000000
        21    1        0.00000000      26.29772188       1.85952975
        22    1        2.27744952      30.24238016       1.85952975
        23    1        2.27744952      24.98283578       0.92976487
        24    1        0.00000000      28.92749407       0.92976487
