 # Bcc Cr oriented X=[-1-12] Y=[1-10] Z=[111].
 
          36  atoms
           1  atom types
 
      0.00000000       7.80848340  xlo xhi
      0.00000000      39.04937996  ylo yhi
      0.00000000       2.76071578  zlo zhi
 
Masses
 
           1   51.99610000    # Cr
 
Atoms # atomic
 
         1    1        0.00000000       0.00000000       0.00000000
         2    1        3.90424170       2.25411500       0.00000000
         3    1        2.60282780       0.00000000       1.84047719
         4    1        6.50706950       2.25411500       1.84047719
         5    1        1.30141390       2.25411500       0.92023859
         6    1        5.20565560       0.00000000       0.92023859
         7    1        0.00000000       4.50822999       0.00000000
         8    1        3.90424170       6.76234499       0.00000000
         9    1        2.60282780       4.50822999       1.84047719
        10    1        6.50706950       6.76234499       1.84047719
        11    1        1.30141390       6.76234499       0.92023859
        12    1        5.20565560       4.50822999       0.92023859
        13    1        0.00000000       9.01645999       0.00000000
        14    1        3.90424170      11.27057499       0.00000000
        15    1        2.60282780       9.01645999       1.84047719
        16    1        6.50706950      11.27057499       1.84047719
        17    1        1.30141390      11.27057499       0.92023859
        18    1        5.20565560       9.01645999       0.92023859
        19    1        0.00000000      13.52468998       0.00000000
        20    1        3.90424170      15.77880498       0.00000000
        21    1        2.60282780      13.52468998       1.84047719
        22    1        6.50706950      15.77880498       1.84047719
        23    1        1.30141390      15.77880498       0.92023859
        24    1        5.20565560      13.52468998       0.92023859
        25    1        0.00000000      18.03291998       0.00000000
        26    1        3.90424170      20.28703497       0.00000000
        27    1        2.60282780      18.03291998       1.84047719
        28    1        6.50706950      20.28703497       1.84047719
        29    1        1.30141390      20.28703497       0.92023859
        30    1        5.20565560      18.03291998       0.92023859
        31    1        0.00000000      22.54114997       0.00000000
        32    1        3.90424170      24.79526497       0.00000000
        33    1        2.60282780      22.54114997       1.84047719
        34    1        6.50706950      24.79526497       1.84047719
        35    1        1.30141390      24.79526497       0.92023859
        36    1        5.20565560      22.54114997       0.92023859
