 # Bcc Cr oriented X=[11-2] Y=[-110] Z=[111].
 
          36  atoms
           1  atom types
 
      0.00000000       7.78423345  xlo xhi
      0.00000000      38.96537568  ylo yhi
      0.00000000       2.75214213  zlo zhi
 
Masses
 
           1   51.99610000    # Cr
 
Atoms # atomic
 
         1    1        3.89211673       2.24711464       0.00000000
         2    1        5.18948897       0.00000000       1.83476142
         3    1        0.00000000       0.00000000       0.00000000
         4    1        1.29737224       2.24711464       1.83476142
         5    1        6.48686121       2.24711464       0.91738071
         6    1        2.59474448       0.00000000       0.91738071
         7    1        3.89211673       6.74134392       0.00000000
         8    1        5.18948897       4.49422928       1.83476142
         9    1        0.00000000       4.49422928       0.00000000
        10    1        1.29737224       6.74134392       1.83476142
        11    1        6.48686121       6.74134392       0.91738071
        12    1        2.59474448       4.49422928       0.91738071
        13    1        3.89211673      11.23557320       0.00000000
        14    1        5.18948897       8.98845856       1.83476142
        15    1        0.00000000       8.98845856       0.00000000
        16    1        1.29737224      11.23557320       1.83476142
        17    1        6.48686121      11.23557320       0.91738071
        18    1        2.59474448       8.98845856       0.91738071
        19    1        3.89211673      15.72980248       0.00000000
        20    1        5.18948897      13.48268784       1.83476142
        21    1        0.00000000      13.48268784       0.00000000
        22    1        1.29737224      15.72980248       1.83476142
        23    1        6.48686121      15.72980248       0.91738071
        24    1        2.59474448      13.48268784       0.91738071
        25    1        3.89211673      20.22403176       0.00000000
        26    1        5.18948897      17.97691712       1.83476142
        27    1        0.00000000      17.97691712       0.00000000
        28    1        1.29737224      20.22403176       1.83476142
        29    1        6.48686121      20.22403176       0.91738071
        30    1        2.59474448      17.97691712       0.91738071
        31    1        3.89211673      24.71826104       0.00000000
        32    1        5.18948897      22.47114640       1.83476142
        33    1        0.00000000      22.47114640       0.00000000
        34    1        1.29737224      24.71826104       1.83476142
        35    1        6.48686121      24.71826104       0.91738071
        36    1        2.59474448      22.47114640       0.91738071
