 # Bcc V oriented X=[-1-12] Y=[1-10] Z=[111].
 
          36  atoms
           1  atom types
 
      0.00000000       7.84889998  xlo xhi
      0.00000000      39.18938711  ylo yhi
      0.00000000       2.77500520  zlo zhi
 
Masses
 
           1   50.94150000    # V 
 
Atoms # atomic
 
         1    1        0.00000000       0.00000000       0.00000000
         2    1        3.92444999       2.26578226       0.00000000
         3    1        2.61629999       0.00000000       1.85000347
         4    1        6.54074999       2.26578226       1.85000347
         5    1        1.30815000       2.26578226       0.92500173
         6    1        5.23259999       0.00000000       0.92500173
         7    1        0.00000000       4.53156452       0.00000000
         8    1        3.92444999       6.79734678       0.00000000
         9    1        2.61629999       4.53156452       1.85000347
        10    1        6.54074999       6.79734678       1.85000347
        11    1        1.30815000       6.79734678       0.92500173
        12    1        5.23259999       4.53156452       0.92500173
        13    1        0.00000000       9.06312904       0.00000000
        14    1        3.92444999      11.32891129       0.00000000
        15    1        2.61629999       9.06312904       1.85000347
        16    1        6.54074999      11.32891129       1.85000347
        17    1        1.30815000      11.32891129       0.92500173
        18    1        5.23259999       9.06312904       0.92500173
        19    1        0.00000000      13.59469355       0.00000000
        20    1        3.92444999      15.86047581       0.00000000
        21    1        2.61629999      13.59469355       1.85000347
        22    1        6.54074999      15.86047581       1.85000347
        23    1        1.30815000      15.86047581       0.92500173
        24    1        5.23259999      13.59469355       0.92500173
        25    1        0.00000000      18.12625807       0.00000000
        26    1        3.92444999      20.39204033       0.00000000
        27    1        2.61629999      18.12625807       1.85000347
        28    1        6.54074999      20.39204033       1.85000347
        29    1        1.30815000      20.39204033       0.92500173
        30    1        5.23259999      18.12625807       0.92500173
        31    1        0.00000000      22.65782259       0.00000000
        32    1        3.92444999      24.92360485       0.00000000
        33    1        2.61629999      22.65782259       1.85000347
        34    1        6.54074999      24.92360485       1.85000347
        35    1        1.30815000      24.92360485       0.92500173
        36    1        5.23259999      22.65782259       0.92500173
