 # Bcc Cr oriented X=[-110] Y=[-1-12] Z=[111].
 
          24  atoms
           1  atom types
 
      0.00000000       4.49422928  xlo xhi
      0.00000000      43.13693381  ylo yhi
      0.00000000       2.75214213  zlo zhi
 
Masses
 
           1   51.99610000    # Cr
 
Atoms # atomic
 
         1    1        0.00000000       0.00000000       0.00000000
         2    1        2.24711464       3.89211673       0.00000000
         3    1        0.00000000       2.59474448       1.83476142
         4    1        2.24711464       6.48686121       1.83476142
         5    1        2.24711464       1.29737224       0.91738071
         6    1        0.00000000       5.18948897       0.91738071
         7    1        0.00000000       7.78423345       0.00000000
         8    1        2.24711464      11.67635018       0.00000000
         9    1        0.00000000      10.37897794       1.83476142
        10    1        2.24711464      14.27109466       1.83476142
        11    1        2.24711464       9.08160570       0.91738071
        12    1        0.00000000      12.97372242       0.91738071
        13    1        0.00000000      15.56846691       0.00000000
        14    1        2.24711464      19.46058363       0.00000000
        15    1        0.00000000      18.16321139       1.83476142
        16    1        2.24711464      22.05532812       1.83476142
        17    1        2.24711464      16.86583915       0.91738071
        18    1        0.00000000      20.75795588       0.91738071
        19    1        0.00000000      23.35270036       0.00000000
        20    1        2.24711464      27.24481709       0.00000000
        21    1        0.00000000      25.94744485       1.83476142
        22    1        2.24711464      29.83956157       1.83476142
        23    1        2.24711464      24.65007260       0.91738071
        24    1        0.00000000      28.54218933       0.91738071
