 # Bcc Cr oriented X=[-110] Y=[-1-12] Z=[111].
 
          24  atoms
           1  atom types
 
      0.00000000       4.50822999  xlo xhi
      0.00000000      43.23393361  ylo yhi
      0.00000000       2.76071578  zlo zhi
 
Masses
 
           1   51.99610000    # Cr
 
Atoms # atomic
 
         1    1        0.00000000       0.00000000       0.00000000
         2    1        2.25411500       3.90424170       0.00000000
         3    1        0.00000000       2.60282780       1.84047719
         4    1        2.25411500       6.50706950       1.84047719
         5    1        2.25411500       1.30141390       0.92023859
         6    1        0.00000000       5.20565560       0.92023859
         7    1        0.00000000       7.80848340       0.00000000
         8    1        2.25411500      11.71272510       0.00000000
         9    1        0.00000000      10.41131120       1.84047719
        10    1        2.25411500      14.31555290       1.84047719
        11    1        2.25411500       9.10989730       0.92023859
        12    1        0.00000000      13.01413900       0.92023859
        13    1        0.00000000      15.61696680       0.00000000
        14    1        2.25411500      19.52120851       0.00000000
        15    1        0.00000000      18.21979460       1.84047719
        16    1        2.25411500      22.12403631       1.84047719
        17    1        2.25411500      16.91838070       0.92023859
        18    1        0.00000000      20.82262241       0.92023859
        19    1        0.00000000      23.42545021       0.00000000
        20    1        2.25411500      27.32969191       0.00000000
        21    1        0.00000000      26.02827801       1.84047719
        22    1        2.25411500      29.93251971       1.84047719
        23    1        2.25411500      24.72686411       0.92023859
        24    1        0.00000000      28.63110581       0.92023859
