 # Bcc V oriented X=[-541] Y=[-1-23] Z=[111].
 
          84  atoms
           1  atom types
 
      0.00000000      20.76623742  xlo xhi
      0.00000000      35.97878553  ylo yhi
      0.00000000       2.77500520  zlo zhi
 
Masses
 
           1   50.94150000    # V 
 
Atoms # atomic
 
         1    1        0.00000000       0.00000000       0.00000000
         2    1        2.96660535       3.42554079       0.00000000
         3    1        0.49443422       2.56915559       1.85000347
         4    1        7.41651336       2.56915559       0.00000000
         5    1        4.94434224       1.71277039       1.85000347
         6    1       11.86642138       1.71277039       0.00000000
         7    1        9.39425026       0.85638520       1.85000347
         8    1       16.31632940       0.85638520       0.00000000
         9    1       13.84415828       0.00000000       1.85000347
        10    1        1.48330267       7.70746678       0.00000000
        11    1        5.93321069       6.85108158       0.00000000
        12    1        3.46103957       5.99469638       1.85000347
        13    1       10.38311871       5.99469638       0.00000000
        14    1        7.91094759       5.13831118       1.85000347
        15    1       14.83302673       5.13831118       0.00000000
        16    1       12.36085561       4.28192599       1.85000347
        17    1       19.28293475       4.28192599       0.00000000
        18    1       16.81076363       3.42554079       1.85000347
        19    1        4.44990802      11.13300757       0.00000000
        20    1        1.97773690      10.27662237       1.85000347
        21    1        8.89981604      10.27662237       0.00000000
        22    1        6.42764492       9.42023717       1.85000347
        23    1       13.34972406       9.42023717       0.00000000
        24    1       10.87755293       8.56385197       1.85000347
        25    1       17.79963207       8.56385197       0.00000000
        26    1       15.32746095       7.70746678       1.85000347
        27    1       19.77736897       6.85108158       1.85000347
        28    1       18.29406630      11.13300757       1.85000347
        29    1        2.47217112       0.85638520       0.92500173
        30    1        6.92207914       0.00000000       0.92500173
        31    1        0.98886845       5.13831118       0.92500173
        32    1        5.43877647       4.28192599       0.92500173
        33    1        9.88868449       3.42554079       0.92500173
        34    1       14.33859250       2.56915559       0.92500173
        35    1       18.78850052       1.71277039       0.92500173
        36    1        3.95547379       8.56385197       0.92500173
        37    1        8.40538181       7.70746678       0.92500173
        38    1       12.85528983       6.85108158       0.92500173
        39    1       17.30519785       5.99469638       0.92500173
        40    1       11.37198716      11.13300757       0.92500173
        41    1       15.82189518      10.27662237       0.92500173
        42    1       20.27180320       9.42023717       0.92500173
        43    1        0.00000000      11.98939276       0.00000000
        44    1        2.96660535      15.41493355       0.00000000
        45    1        0.49443422      14.55854836       1.85000347
        46    1        7.41651336      14.55854836       0.00000000
        47    1        4.94434224      13.70216316       1.85000347
        48    1       11.86642138      13.70216316       0.00000000
        49    1        9.39425026      12.84577796       1.85000347
        50    1       16.31632940      12.84577796       0.00000000
        51    1       13.84415828      11.98939276       1.85000347
        52    1        1.48330267      19.69685954       0.00000000
        53    1        5.93321069      18.84047434       0.00000000
        54    1        3.46103957      17.98408915       1.85000347
        55    1       10.38311871      17.98408915       0.00000000
        56    1        7.91094759      17.12770395       1.85000347
        57    1       14.83302673      17.12770395       0.00000000
        58    1       12.36085561      16.27131875       1.85000347
        59    1       19.28293475      16.27131875       0.00000000
        60    1       16.81076363      15.41493355       1.85000347
        61    1        4.44990802      23.12240033       0.00000000
        62    1        1.97773690      22.26601513       1.85000347
        63    1        8.89981604      22.26601513       0.00000000
        64    1        6.42764492      21.40962994       1.85000347
        65    1       13.34972406      21.40962994       0.00000000
        66    1       10.87755293      20.55324474       1.85000347
        67    1       17.79963207      20.55324474       0.00000000
        68    1       15.32746095      19.69685954       1.85000347
        69    1       19.77736897      18.84047434       1.85000347
        70    1       18.29406630      23.12240033       1.85000347
        71    1        2.47217112      12.84577796       0.92500173
        72    1        6.92207914      11.98939276       0.92500173
        73    1        0.98886845      17.12770395       0.92500173
        74    1        5.43877647      16.27131875       0.92500173
        75    1        9.88868449      15.41493355       0.92500173
        76    1       14.33859250      14.55854836       0.92500173
        77    1       18.78850052      13.70216316       0.92500173
        78    1        3.95547379      20.55324474       0.92500173
        79    1        8.40538181      19.69685954       0.92500173
        80    1       12.85528983      18.84047434       0.92500173
        81    1       17.30519785      17.98408915       0.92500173
        82    1       11.37198716      23.12240033       0.92500173
        83    1       15.82189518      22.26601513       0.92500173
        84    1       20.27180320      21.40962994       0.92500173
