 # Bcc Mo oriented X=[-1-12] Y=[1-10] Z=[111].
 
          36  atoms
           1  atom types
 
      0.00000000       7.88931656  xlo xhi
      0.00000000      39.32939425  ylo yhi
      0.00000000       2.78929462  zlo zhi
 
Masses
 
           1   95.96000000    # Mo
 
Atoms # atomic
 
         1    1        0.00000000       0.00000000       0.00000000
         2    1        3.94465828       2.27744952       0.00000000
         3    1        2.62977219       0.00000000       1.85952975
         4    1        6.57443047       2.27744952       1.85952975
         5    1        1.31488609       2.27744952       0.92976487
         6    1        5.25954438       0.00000000       0.92976487
         7    1        0.00000000       4.55489904       0.00000000
         8    1        3.94465828       6.83234856       0.00000000
         9    1        2.62977219       4.55489904       1.85952975
        10    1        6.57443047       6.83234856       1.85952975
        11    1        1.31488609       6.83234856       0.92976487
        12    1        5.25954438       4.55489904       0.92976487
        13    1        0.00000000       9.10979808       0.00000000
        14    1        3.94465828      11.38724760       0.00000000
        15    1        2.62977219       9.10979808       1.85952975
        16    1        6.57443047      11.38724760       1.85952975
        17    1        1.31488609      11.38724760       0.92976487
        18    1        5.25954438       9.10979808       0.92976487
        19    1        0.00000000      13.66469713       0.00000000
        20    1        3.94465828      15.94214665       0.00000000
        21    1        2.62977219      13.66469713       1.85952975
        22    1        6.57443047      15.94214665       1.85952975
        23    1        1.31488609      15.94214665       0.92976487
        24    1        5.25954438      13.66469713       0.92976487
        25    1        0.00000000      18.21959617       0.00000000
        26    1        3.94465828      20.49704569       0.00000000
        27    1        2.62977219      18.21959617       1.85952975
        28    1        6.57443047      20.49704569       1.85952975
        29    1        1.31488609      20.49704569       0.92976487
        30    1        5.25954438      18.21959617       0.92976487
        31    1        0.00000000      22.77449521       0.00000000
        32    1        3.94465828      25.05194473       0.00000000
        33    1        2.62977219      22.77449521       1.85952975
        34    1        6.57443047      25.05194473       1.85952975
        35    1        1.31488609      25.05194473       0.92976487
        36    1        5.25954438      22.77449521       0.92976487
