 # Bcc Cr oriented X=[-541] Y=[-1-23] Z=[111].
 
          84  atoms
           1  atom types
 
      0.00000000      20.59514587  xlo xhi
      0.00000000      35.78122602  ylo yhi
      0.00000000       2.75214213  zlo zhi
 
Masses
 
           1   51.99610000    # Cr
 
Atoms # atomic
 
         1    1        0.00000000       0.00000000       0.00000000
         2    1        2.94216370       3.39731800       0.00000000
         3    1        0.49036062       2.54798850       1.83476142
         4    1        7.35540924       2.54798850       0.00000000
         5    1        4.90360616       1.69865900       1.83476142
         6    1       11.76865478       1.69865900      -0.00000000
         7    1        9.31685170       0.84932950       1.83476142
         8    1       16.18190032       0.84932950       0.00000000
         9    1       13.73009724       0.00000000       1.83476142
        10    1        1.47108185       7.64396551       0.00000000
        11    1        5.88432739       6.79463601       0.00000000
        12    1        3.43252431       5.94530650       1.83476142
        13    1       10.29757293       5.94530650      -0.00000000
        14    1        7.84576985       5.09597700       1.83476142
        15    1       14.71081848       5.09597700       0.00000000
        16    1       12.25901540       4.24664750       1.83476142
        17    1       19.12406402       4.24664750       0.00000000
        18    1       16.67226094       3.39731800       1.83476142
        19    1        4.41324554      11.04128351       0.00000000
        20    1        1.96144246      10.19195401       1.83476142
        21    1        8.82649109      10.19195401       0.00000000
        22    1        6.37468801       9.34262451       1.83476142
        23    1       13.23973663       9.34262451       0.00000000
        24    1       10.78793355       8.49329501       1.83476142
        25    1       17.65298217       8.49329501       0.00000000
        26    1       15.20117909       7.64396551       1.83476142
        27    1       19.61442463       6.79463601       1.83476142
        28    1       18.14334279      11.04128351       1.83476142
        29    1        2.45180308       0.84932950       0.91738071
        30    1        6.86504862      -0.00000000       0.91738071
        31    1        0.98072123       5.09597700       0.91738071
        32    1        5.39396677       4.24664750       0.91738071
        33    1        9.80721232       3.39731800       0.91738071
        34    1       14.22045786       2.54798850       0.91738071
        35    1       18.63370340       1.69865900       0.91738071
        36    1        3.92288493       8.49329501       0.91738071
        37    1        8.33613047       7.64396551       0.91738071
        38    1       12.74937601       6.79463601       0.91738071
        39    1       17.16262155       5.94530650       0.91738071
        40    1       11.27829416      11.04128351       0.91738071
        41    1       15.69153971      10.19195401       0.91738071
        42    1       20.10478525       9.34262451       0.91738071
        43    1        0.00000000      11.89061301       0.00000000
        44    1        2.94216370      15.28793101       0.00000000
        45    1        0.49036062      14.43860151       1.83476142
        46    1        7.35540924      14.43860151       0.00000000
        47    1        4.90360616      13.58927201       1.83476142
        48    1       11.76865478      13.58927201      -0.00000000
        49    1        9.31685170      12.73994251       1.83476142
        50    1       16.18190032      12.73994251       0.00000000
        51    1       13.73009724      11.89061301       1.83476142
        52    1        1.47108185      19.53457852       0.00000000
        53    1        5.88432739      18.68524901       0.00000000
        54    1        3.43252431      17.83591951       1.83476142
        55    1       10.29757293      17.83591951      -0.00000000
        56    1        7.84576985      16.98659001       1.83476142
        57    1       14.71081848      16.98659001       0.00000000
        58    1       12.25901540      16.13726051       1.83476142
        59    1       19.12406402      16.13726051       0.00000000
        60    1       16.67226094      15.28793101       1.83476142
        61    1        4.41324554      22.93189652       0.00000000
        62    1        1.96144246      22.08256702       1.83476142
        63    1        8.82649109      22.08256702       0.00000000
        64    1        6.37468801      21.23323752       1.83476142
        65    1       13.23973663      21.23323752       0.00000000
        66    1       10.78793355      20.38390802       1.83476142
        67    1       17.65298217      20.38390802       0.00000000
        68    1       15.20117909      19.53457852       1.83476142
        69    1       19.61442463      18.68524901       1.83476142
        70    1       18.14334279      22.93189652       1.83476142
        71    1        2.45180308      12.73994251       0.91738071
        72    1        6.86504862      11.89061301       0.91738071
        73    1        0.98072123      16.98659001       0.91738071
        74    1        5.39396677      16.13726051       0.91738071
        75    1        9.80721232      15.28793101       0.91738071
        76    1       14.22045786      14.43860151       0.91738071
        77    1       18.63370340      13.58927201       0.91738071
        78    1        3.92288493      20.38390802       0.91738071
        79    1        8.33613047      19.53457852       0.91738071
        80    1       12.74937601      18.68524901       0.91738071
        81    1       17.16262155      17.83591951       0.91738071
        82    1       11.27829416      22.93189652       0.91738071
        83    1       15.69153971      22.08256702       0.91738071
        84    1       20.10478525      21.23323752       0.91738071
