 # Bcc Cr oriented X=[-541] Y=[-1-23] Z=[111].
 
          84  atoms
           1  atom types
 
      0.00000000      20.65930520  xlo xhi
      0.00000000      23.85531084  ylo yhi
      0.00000000       2.76071578  zlo zhi
 
Masses
 
           1   51.99610000    # Cr
 
Atoms # atomic
 
         1    1        0.00000000       0.00000000       0.00000000
         2    1        2.95132931       3.40790155       0.00000000
         3    1        0.49188822       2.55592616       1.84047719
         4    1        7.37832329       2.55592616       0.00000000
         5    1        4.91888219       1.70395077       1.84047719
         6    1       11.80531726       1.70395077      -0.00000000
         7    1        9.34587616       0.85197539       1.84047719
         8    1       16.23231123       0.85197539       0.00000000
         9    1       13.77287013       0.00000000       1.84047719
        10    1        1.47566466       7.66777848       0.00000000
        11    1        5.90265863       6.81580310       0.00000000
        12    1        3.44321753       5.96382771       1.84047719
        13    1       10.32965260       5.96382771      -0.00000000
        14    1        7.87021150       5.11185232       1.84047719
        15    1       14.75664657       5.11185232       0.00000000
        16    1       12.29720548       4.25987693       1.84047719
        17    1       19.18364054       4.25987693       0.00000000
        18    1       16.72419945       3.40790155       1.84047719
        19    1        4.42699397      11.07568003       0.00000000
        20    1        1.96755288      10.22370464       1.84047719
        21    1        8.85398794      10.22370464       0.00000000
        22    1        6.39454685       9.37172926       1.84047719
        23    1       13.28098191       9.37172926       0.00000000
        24    1       10.82154082       8.51975387       1.84047719
        25    1       17.70797588       8.51975387       0.00000000
        26    1       15.24853479       7.66777848       1.84047719
        27    1       19.67552876       6.81580310       1.84047719
        28    1       18.19986410      11.07568003       1.84047719
        29    1        2.45944110       0.85197539       0.92023859
        30    1        6.88643507       0.00000000       0.92023859
        31    1        0.98377644       5.11185232       0.92023859
        32    1        5.41077041       4.25987693       0.92023859
        33    1        9.83776438       3.40790155       0.92023859
        34    1       14.26475835       2.55592616       0.92023859
        35    1       18.69175232       1.70395077       0.92023859
        36    1        3.93510575       8.51975387       0.92023859
        37    1        8.36209972       7.66777848       0.92023859
        38    1       12.78909369       6.81580310       0.92023859
        39    1       17.21608767       5.96382771       0.92023859
        40    1       11.31342904      11.07568003       0.92023859
        41    1       15.74042301      10.22370464       0.92023859
        42    1       20.16741698       9.37172926       0.92023859
        43    1        0.00000000      11.92765542       0.00000000
        44    1        2.95132931      15.33555697       0.00000000
        45    1        0.49188822      14.48358158       1.84047719
        46    1        7.37832329      14.48358158       0.00000000
        47    1        4.91888219      13.63160619       1.84047719
        48    1       11.80531726      13.63160619      -0.00000000
        49    1        9.34587616      12.77963080       1.84047719
        50    1       16.23231123      12.77963080       0.00000000
        51    1       13.77287013      11.92765542       1.84047719
        52    1        1.47566466      19.59543390       0.00000000
        53    1        5.90265863      18.74345851       0.00000000
        54    1        3.44321753      17.89148313       1.84047719
        55    1       10.32965260      17.89148313      -0.00000000
        56    1        7.87021150      17.03950774       1.84047719
        57    1       14.75664657      17.03950774       0.00000000
        58    1       12.29720548      16.18753235       1.84047719
        59    1       19.18364054      16.18753235       0.00000000
        60    1       16.72419945      15.33555697       1.84047719
        61    1        4.42699397      23.00333545       0.00000000
        62    1        1.96755288      22.15136006       1.84047719
        63    1        8.85398794      22.15136006       0.00000000
        64    1        6.39454685      21.29938467       1.84047719
        65    1       13.28098191      21.29938467       0.00000000
        66    1       10.82154082      20.44740929       1.84047719
        67    1       17.70797588      20.44740929       0.00000000
        68    1       15.24853479      19.59543390       1.84047719
        69    1       19.67552876      18.74345851       1.84047719
        70    1       18.19986410      23.00333545       1.84047719
        71    1        2.45944110      12.77963080       0.92023859
        72    1        6.88643507      11.92765542       0.92023859
        73    1        0.98377644      17.03950774       0.92023859
        74    1        5.41077041      16.18753235       0.92023859
        75    1        9.83776438      15.33555697       0.92023859
        76    1       14.26475835      14.48358158       0.92023859
        77    1       18.69175232      13.63160619       0.92023859
        78    1        3.93510575      20.44740929       0.92023859
        79    1        8.36209972      19.59543390       0.92023859
        80    1       12.78909369      18.74345851       0.92023859
        81    1       17.21608767      17.89148313       0.92023859
        82    1       11.31342904      23.00333545       0.92023859
        83    1       15.74042301      22.15136006       0.92023859
        84    1       20.16741698      21.29938467       0.92023859
