 # Bcc Cr oriented X=[-541] Y=[-1-23] Z=[111].
 
          84  atoms
           1  atom types
 
      0.00000000      20.87316964  xlo xhi
      0.00000000      36.10226022  ylo yhi
      0.00000000       2.78929462  zlo zhi
 
Masses
 
           1   51.99610000    # Cr
 
Atoms # atomic
 
         1    1        0.00000000       0.00000000       0.00000000
         2    1        2.98188138       3.44318003       0.00000000
         3    1        0.49698023       2.58238502       1.85952975
         4    1        7.45470344       2.58238502       0.00000000
         5    1        4.96980230       1.72159002       1.85952975
         6    1       11.92752551       1.72159002       0.00000000
         7    1        9.44262436       0.86079501       1.85952975
         8    1       16.40034758       0.86079501      -0.00000000
         9    1       13.91544643       0.00000000       1.85952975
        10    1        1.49094069       7.74715507       0.00000000
        11    1        5.96376275       6.88636006       0.00000000
        12    1        3.47886161       6.02556506       1.85952975
        13    1       10.43658482       6.02556506       0.00000000
        14    1        7.95168367       5.16477005       1.85952975
        15    1       14.90940689       5.16477005       0.00000000
        16    1       12.42450574       4.30397504       1.85952975
        17    1       19.38222895       4.30397504       0.00000000
        18    1       16.89732780       3.44318003       1.85952975
        19    1        4.47282207      11.19033510       0.00000000
        20    1        1.98792092      10.32954010       1.85952975
        21    1        8.94564413      10.32954010       0.00000000
        22    1        6.46074298       9.46874509       1.85952975
        23    1       13.41846620       9.46874509       0.00000000
        24    1       10.93356505       8.60795008       1.85952975
        25    1       17.89128826       8.60795008       0.00000000
        26    1       15.40638712       7.74715507       1.85952975
        27    1       19.87920918       6.88636006       1.85952975
        28    1       18.38826849      11.19033510       1.85952975
        29    1        2.48490115       0.86079501       0.92976487
        30    1        6.95772321       0.00000000       0.92976487
        31    1        0.99396046       5.16477005       0.92976487
        32    1        5.46678253       4.30397504       0.92976487
        33    1        9.93960459       3.44318003       0.92976487
        34    1       14.41242666       2.58238502       0.92976487
        35    1       18.88524872       1.72159002       0.92976487
        36    1        3.97584184       8.60795008       0.92976487
        37    1        8.44866390       7.74715507       0.92976487
        38    1       12.92148597       6.88636006       0.92976487
        39    1       17.39430803       6.02556506       0.92976487
        40    1       11.43054528      11.19033510       0.92976487
        41    1       15.90336735      10.32954010       0.92976487
        42    1       20.37618941       9.46874509       0.92976487
        43    1        0.00000000      12.05113011       0.00000000
        44    1        2.98188138      15.49431014       0.00000000
        45    1        0.49698023      14.63351514       1.85952975
        46    1        7.45470344      14.63351514       0.00000000
        47    1        4.96980230      13.77272013       1.85952975
        48    1       11.92752551      13.77272013       0.00000000
        49    1        9.44262436      12.91192512       1.85952975
        50    1       16.40034758      12.91192512      -0.00000000
        51    1       13.91544643      12.05113011       1.85952975
        52    1        1.49094069      19.79828518       0.00000000
        53    1        5.96376275      18.93749017       0.00000000
        54    1        3.47886161      18.07669517       1.85952975
        55    1       10.43658482      18.07669517       0.00000000
        56    1        7.95168367      17.21590016       1.85952975
        57    1       14.90940689      17.21590016       0.00000000
        58    1       12.42450574      16.35510515       1.85952975
        59    1       19.38222895      16.35510515       0.00000000
        60    1       16.89732780      15.49431014       1.85952975
        61    1        4.47282207      23.24146521       0.00000000
        62    1        1.98792092      22.38067021       1.85952975
        63    1        8.94564413      22.38067021       0.00000000
        64    1        6.46074298      21.51987520       1.85952975
        65    1       13.41846620      21.51987520       0.00000000
        66    1       10.93356505      20.65908019       1.85952975
        67    1       17.89128826      20.65908019       0.00000000
        68    1       15.40638712      19.79828518       1.85952975
        69    1       19.87920918      18.93749017       1.85952975
        70    1       18.38826849      23.24146521       1.85952975
        71    1        2.48490115      12.91192512       0.92976487
        72    1        6.95772321      12.05113011       0.92976487
        73    1        0.99396046      17.21590016       0.92976487
        74    1        5.46678253      16.35510515       0.92976487
        75    1        9.93960459      15.49431014       0.92976487
        76    1       14.41242666      14.63351514       0.92976487
        77    1       18.88524872      13.77272013       0.92976487
        78    1        3.97584184      20.65908019       0.92976487
        79    1        8.44866390      19.79828518       0.92976487
        80    1       12.92148597      18.93749017       0.92976487
        81    1       17.39430803      18.07669517       0.92976487
        82    1       11.43054528      23.24146521       0.92976487
        83    1       15.90336735      22.38067021       0.92976487
        84    1       20.37618941      21.51987520       0.92976487
