 # Bcc Cr oriented X=[-541] Y=[-1-23] Z=[111].
 
          84  atoms
           1  atom types
 
      0.00000000      20.57375942  xlo xhi
      0.00000000      35.75653108  ylo yhi
      0.00000000       2.74928425  zlo zhi
 
Masses
 
           1   51.99610000    # Cr
 
Atoms # atomic
 
         1    1        0.00000000       0.00000000       0.00000000
         2    1        2.93910849       3.39379015       0.00000000
         3    1        0.48985141       2.54534262       1.83285616
         4    1        7.34777122       2.54534262       0.00000000
         5    1        4.89851415       1.69689508       1.83285616
         6    1       11.75643395       1.69689508       0.00000000
         7    1        9.30717688       0.84844754       1.83285616
         8    1       16.16509669       0.84844754       0.00000000
         9    1       13.71583961       0.00000000       1.83285616
        10    1        1.46955424       7.63602785       0.00000000
        11    1        5.87821698       6.78758031       0.00000000
        12    1        3.42895990       5.93913277       1.83285616
        13    1       10.28687971       5.93913277       0.00000000
        14    1        7.83762264       5.09068523       1.83285616
        15    1       14.69554244       5.09068523       0.00000000
        16    1       12.24628537       4.24223769       1.83285616
        17    1       19.10420518       4.24223769       0.00000000
        18    1       16.65494810       3.39379015       1.83285616
        19    1        4.40866273      11.02981800       0.00000000
        20    1        1.95940566      10.18137046       1.83285616
        21    1        8.81732547      10.18137046       0.00000000
        22    1        6.36806839       9.33292292       1.83285616
        23    1       13.22598820       9.33292292       0.00000000
        24    1       10.77673113       8.48447539       1.83285616
        25    1       17.63465093       8.48447539       0.00000000
        26    1       15.18539386       7.63602785       1.83285616
        27    1       19.59405659       6.78758031       1.83285616
        28    1       18.12450235      11.02981800       1.83285616
        29    1        2.44925707       0.84844754       0.91642808
        30    1        6.85791981       0.00000000       0.91642808
        31    1        0.97970283       5.09068523       0.91642808
        32    1        5.38836556       4.24223769       0.91642808
        33    1        9.79702830       3.39379015       0.91642808
        34    1       14.20569103       2.54534262       0.91642808
        35    1       18.61435376       1.69689508       0.91642808
        36    1        3.91881132       8.48447539       0.91642808
        37    1        8.32747405       7.63602785       0.91642808
        38    1       12.73613678       6.78758031       0.91642808
        39    1       17.14479952       5.93913277       0.91642808
        40    1       11.26658254      11.02981800       0.91642808
        41    1       15.67524527      10.18137046       0.91642808
        42    1       20.08390801       9.33292292       0.91642808
        43    1        0.00000000      11.87826554       0.00000000
        44    1        2.93910849      15.27205569       0.00000000
        45    1        0.48985141      14.42360816       1.83285616
        46    1        7.34777122      14.42360816       0.00000000
        47    1        4.89851415      13.57516062       1.83285616
        48    1       11.75643395      13.57516062       0.00000000
        49    1        9.30717688      12.72671308       1.83285616
        50    1       16.16509669      12.72671308       0.00000000
        51    1       13.71583961      11.87826554       1.83285616
        52    1        1.46955424      19.51429339       0.00000000
        53    1        5.87821698      18.66584585       0.00000000
        54    1        3.42895990      17.81739831       1.83285616
        55    1       10.28687971      17.81739831       0.00000000
        56    1        7.83762264      16.96895077       1.83285616
        57    1       14.69554244      16.96895077       0.00000000
        58    1       12.24628537      16.12050323       1.83285616
        59    1       19.10420518      16.12050323       0.00000000
        60    1       16.65494810      15.27205569       1.83285616
        61    1        4.40866273      22.90808354       0.00000000
        62    1        1.95940566      22.05963600       1.83285616
        63    1        8.81732547      22.05963600       0.00000000
        64    1        6.36806839      21.21118846       1.83285616
        65    1       13.22598820      21.21118846       0.00000000
        66    1       10.77673113      20.36274093       1.83285616
        67    1       17.63465093      20.36274093       0.00000000
        68    1       15.18539386      19.51429339       1.83285616
        69    1       19.59405659      18.66584585       1.83285616
        70    1       18.12450235      22.90808354       1.83285616
        71    1        2.44925707      12.72671308       0.91642808
        72    1        6.85791981      11.87826554       0.91642808
        73    1        0.97970283      16.96895077       0.91642808
        74    1        5.38836556      16.12050323       0.91642808
        75    1        9.79702830      15.27205569       0.91642808
        76    1       14.20569103      14.42360816       0.91642808
        77    1       18.61435376      13.57516062       0.91642808
        78    1        3.91881132      20.36274093       0.91642808
        79    1        8.32747405      19.51429339       0.91642808
        80    1       12.73613678      18.66584585       0.91642808
        81    1       17.14479952      17.81739831       0.91642808
        82    1       11.26658254      22.90808354       0.91642808
        83    1       15.67524527      22.05963600       0.91642808
        84    1       20.08390801      21.21118846       0.91642808
