 # Bcc Cr oriented X=[-541] Y=[-1-23] Z=[111].
 
          84  atoms
           1  atom types
 
      0.00000000      20.50960009  xlo xhi
      0.00000000      35.68244626  ylo yhi
      0.00000000       2.74071060  zlo zhi
 
Masses
 
           1   51.99610000    # Cr
 
Atoms # atomic
 
         1    1        0.00000000       0.00000000       0.00000000
         2    1        2.92994287       3.38320661       0.00000000
         3    1        0.48832381       2.53740496       1.82714040
         4    1        7.32485717       2.53740496       0.00000000
         5    1        4.88323812       1.69160330       1.82714040
         6    1       11.71977148       1.69160330       0.00000000
         7    1        9.27815242       0.84580165       1.82714040
         8    1       16.11468578       0.84580165       0.00000000
         9    1       13.67306673       0.00000000       1.82714040
        10    1        1.46497143       7.61221487       0.00000000
        11    1        5.85988574       6.76641322       0.00000000
        12    1        3.41826668       5.92061157       1.82714040
        13    1       10.25480004       5.92061157       0.00000000
        14    1        7.81318099       5.07480991       1.82714040
        15    1       14.64971435       5.07480991       0.00000000
        16    1       12.20809529       4.22900826       1.82714040
        17    1       19.04462865       4.22900826       0.00000000
        18    1       16.60300960       3.38320661       1.82714040
        19    1        4.39491430      10.99542148       0.00000000
        20    1        1.95329525      10.14961983       1.82714040
        21    1        8.78982861      10.14961983       0.00000000
        22    1        6.34820955       9.30381818       1.82714040
        23    1       13.18474291       9.30381818       0.00000000
        24    1       10.74312386       8.45801652       1.82714040
        25    1       17.57965722       8.45801652       0.00000000
        26    1       15.13803816       7.61221487       1.82714040
        27    1       19.53295247       6.76641322       1.82714040
        28    1       18.06798103      10.99542148       1.82714040
        29    1        2.44161906       0.84580165       0.91357020
        30    1        6.83653336       0.00000000       0.91357020
        31    1        0.97664762       5.07480991       0.91357020
        32    1        5.37156193       4.22900826       0.91357020
        33    1        9.76647623       3.38320661       0.91357020
        34    1       14.16139054       2.53740496       0.91357020
        35    1       18.55630484       1.69160330       0.91357020
        36    1        3.90659049       8.45801652       0.91357020
        37    1        8.30150480       7.61221487       0.91357020
        38    1       12.69641910       6.76641322       0.91357020
        39    1       17.09133341       5.92061157       0.91357020
        40    1       11.23144767      10.99542148       0.91357020
        41    1       15.62636197      10.14961983       0.91357020
        42    1       20.02127628       9.30381818       0.91357020
        43    1        0.00000000      11.84122313       0.00000000
        44    1        2.92994287      15.22442974       0.00000000
        45    1        0.48832381      14.37862809       1.82714040
        46    1        7.32485717      14.37862809       0.00000000
        47    1        4.88323812      13.53282644       1.82714040
        48    1       11.71977148      13.53282644       0.00000000
        49    1        9.27815242      12.68702478       1.82714040
        50    1       16.11468578      12.68702478       0.00000000
        51    1       13.67306673      11.84122313       1.82714040
        52    1        1.46497143      19.45343800       0.00000000
        53    1        5.85988574      18.60763635       0.00000000
        54    1        3.41826668      17.76183470       1.82714040
        55    1       10.25480004      17.76183470       0.00000000
        56    1        7.81318099      16.91603305       1.82714040
        57    1       14.64971435      16.91603305       0.00000000
        58    1       12.20809529      16.07023139       1.82714040
        59    1       19.04462865      16.07023139       0.00000000
        60    1       16.60300960      15.22442974       1.82714040
        61    1        4.39491430      22.83664461       0.00000000
        62    1        1.95329525      21.99084296       1.82714040
        63    1        8.78982861      21.99084296       0.00000000
        64    1        6.34820955      21.14504131       1.82714040
        65    1       13.18474291      21.14504131       0.00000000
        66    1       10.74312386      20.29923965       1.82714040
        67    1       17.57965722      20.29923965       0.00000000
        68    1       15.13803816      19.45343800       1.82714040
        69    1       19.53295247      18.60763635       1.82714040
        70    1       18.06798103      22.83664461       1.82714040
        71    1        2.44161906      12.68702478       0.91357020
        72    1        6.83653336      11.84122313       0.91357020
        73    1        0.97664762      16.91603305       0.91357020
        74    1        5.37156193      16.07023139       0.91357020
        75    1        9.76647623      15.22442974       0.91357020
        76    1       14.16139054      14.37862809       0.91357020
        77    1       18.55630484      13.53282644       0.91357020
        78    1        3.90659049      20.29923965       0.91357020
        79    1        8.30150480      19.45343800       0.91357020
        80    1       12.69641910      18.60763635       0.91357020
        81    1       17.09133341      17.76183470       0.91357020
        82    1       11.23144767      22.83664461       0.91357020
        83    1       15.62636197      21.99084296       0.91357020
        84    1       20.02127628      21.14504131       0.91357020
