 # Bcc V oriented X=[-110] Y=[-1-12] Z=[111].
 
          24  atoms
           1  atom types
 
      0.00000000       4.53156452  xlo xhi
      0.00000000      43.39559993  ylo yhi
      0.00000000       2.77500520  zlo zhi
 
Masses
 
           1   50.94150000    # V 
 
Atoms # atomic
 
         1    1        0.00000000       0.00000000       0.00000000
         2    1        2.26578226       3.92444999       0.00000000
         3    1        0.00000000       2.61629999       1.85000347
         4    1        2.26578226       6.54074999       1.85000347
         5    1        2.26578226       1.30815000       0.92500173
         6    1        0.00000000       5.23259999       0.92500173
         7    1        0.00000000       7.84889998       0.00000000
         8    1        2.26578226      11.77334997       0.00000000
         9    1        0.00000000      10.46519998       1.85000347
        10    1        2.26578226      14.38964997       1.85000347
        11    1        2.26578226       9.15704998       0.92500173
        12    1        0.00000000      13.08149997       0.92500173
        13    1        0.00000000      15.69779997       0.00000000
        14    1        2.26578226      19.62224996       0.00000000
        15    1        0.00000000      18.31409996       1.85000347
        16    1        2.26578226      22.23854995       1.85000347
        17    1        2.26578226      17.00594996       0.92500173
        18    1        0.00000000      20.93039995       0.92500173
        19    1        0.00000000      23.54669995       0.00000000
        20    1        2.26578226      27.47114994       0.00000000
        21    1        0.00000000      26.16299994       1.85000347
        22    1        2.26578226      30.08744993       1.85000347
        23    1        2.26578226      24.85484995       0.92500173
        24    1        0.00000000      28.77929994       0.92500173
